                               Psi4 1.1 release

  ==> Input File <==

--------------------------------------------------------------------------
# Any line starting with the # character is a comment line
#! Sample HF/cc-pVDZ Feringa computation

memory 2000 mb

molecule {
  O          -0.0905    5.5166   12.3212
  C           0.2148    3.5148   10.5539
  C           1.2528    4.5034    7.6327
  C           0.4429    5.9274   11.1286
  C           1.7540    3.2686    7.3766
  C          -0.8252    2.9396    9.8619
  H          -1.2025    3.3992    9.1219
  C           1.7183    2.5437    6.0696
  C           3.0507    2.6072    9.5438
  H           2.9013    3.4342    9.9869
  C           1.0732    7.6244    9.5385
  H           1.2275    8.5364    9.3209
  C           0.6509    4.8945   10.1848
  C           0.7880    2.8150   11.6680
  C           3.5773    0.1811    8.2153
  H           3.7557   -0.6352    7.7635
  C           0.7031    7.2626   10.8309
  H           0.6286    7.9245   11.5072
  C           2.8346    1.1819    7.6040
  C           0.8725    5.4878    6.5329
  H           1.3338    5.2571    5.6753
  C           1.0804    5.2753    8.8983
  C           1.2127    6.6449    8.5780
  C           2.5109    2.3759    8.2838
  C           4.0543    0.3990    9.5019
  H           4.5471   -0.2825    9.9444
  C           1.8496    3.3486   12.4438
  H           2.1861    4.2127   12.2395
  C          -1.3425    1.6789   10.2326
  H          -2.0752    1.3104    9.7534
  C           1.2485    1.9192    3.7870
  H           0.8622    2.1258    2.9451
  C           2.3548    1.2902    6.2299
  C           0.2861    1.5272   12.0084
  C          -0.6476    5.5052    6.3445
  H          -0.8920    6.2245    5.7258
  H          -1.0820    5.6575    7.2089
  H          -0.9413    4.6452    5.9778
  C           1.4014    6.8266    7.0972
  H           2.3554    6.9610    6.8693
  H           0.8740    7.5933    6.7579
  C           1.1295    2.8321    4.8348
  H           0.6522    3.6437    4.7095
  C           1.9218    0.7111    3.9510
  H           2.0076    0.1130    3.2184
  C           3.8137    1.6101   10.1487
  H           4.1751    1.7585   11.0137
  C           2.4674    0.3804    5.1847
  H           2.9087   -0.4511    5.3118
  C           0.8829    0.8211   13.0952
  H           0.5519   -0.0380   13.3300
  C           1.9174    1.3550   13.8002
  H           2.3150    0.8603   14.5081
  C          -0.7959    0.9854   11.2759
  H          -1.1452    0.1335   11.5099
  C          -0.4216    6.5116   13.2838
  H          -1.0388    7.1598   12.8843
  H           0.3939    6.9717   13.5715
  H          -0.8480    6.0881   14.0570
  C           2.3993    2.6430   13.4812
  H           3.1079    3.0221   13.9880
}

set basis 6-31G**
optimize('scf')
--------------------------------------------------------------------------

    Molecular point group: c1
  Charge       = 0
  Multiplicity = 1
  Basis Set: 6-31G**
    Blend: 6-31G**
  Basis Set: (6-31G** AUX)
    Blend: CC-PVDZ-JKFIT
  @DF-RHF Final Energy: -1377.24770001712250
    Total Energy =                      -1377.2477000171224972
    Molecular point group: c1
  Basis Set: 6-31G**
    Blend: 6-31G**
  Basis Set: (6-31G** AUX)
    Blend: CC-PVDZ-JKFIT
  Basis Set: 6-31G**
    Blend: 6-31G**
  Basis Set: (6-31G** AUX)
    Blend: CC-PVDZ-JKFIT
  @DF-RHF Final Energy: -1377.47645668035761
    Total Energy =                      -1377.4764566803578418
  Basis Set: 6-31G**
    Blend: 6-31G**
  Basis Set: (6-31G** AUX)
    Blend: CC-PVDZ-JKFIT
  Basis Set: 6-31G**
    Blend: 6-31G**
  @DF-RHF Final Energy: -1377.55498077421066
    Total Energy =                      -1377.5549807742104349
  @DF-RHF Final Energy: -1377.56807856448154
    Total Energy =                      -1377.5680785644817661
  @DF-RHF Final Energy: -1377.57020790325237
    Total Energy =                      -1377.5702079032525944
  @DF-RHF Final Energy: -1377.57049226906247
    Total Energy =                      -1377.5704922690624699
  @DF-RHF Final Energy: -1377.57045524495561
    Total Energy =                      -1377.5704552449556104
  @DF-RHF Final Energy: -1377.57091444928756
    Total Energy =                      -1377.5709144492875566
  @DF-RHF Final Energy: -1377.57108754232718
    Total Energy =                      -1377.5710875423274047
  @DF-RHF Final Energy: -1377.57116055412780
    Total Energy =                      -1377.5711605541278004
  @DF-RHF Final Energy: -1377.57118597354861
    Total Energy =                      -1377.5711859735483813
  @DF-RHF Final Energy: -1377.57120788131806
    Total Energy =                      -1377.5712078813180597
  Basis Set: (6-31G** AUX)
    Blend: CC-PVDZ-JKFIT
  Basis Set: 6-31G**
    Blend: 6-31G**
  Basis Set: (6-31G** AUX)
    Blend: CC-PVDZ-JKFIT
  @DF-RHF Final Energy: -1377.57121544865095
    Total Energy =                      -1377.5712154486509462
  Basis Set: 6-31G**
    Blend: 6-31G**
  Basis Set: (6-31G** AUX)
    Blend: CC-PVDZ-JKFIT
  Charge       = 0
  Multiplicity = 1
  Basis Set: 6-31G**
    Blend: 6-31G**
  Basis Set: (6-31G** AUX)
    Blend: CC-PVDZ-JKFIT

    Orbital Energies (a.u.)
    -----------------------

    Doubly Occupied:

       1A    -20.585579     2A    -11.299177     3A    -11.282498
       4A    -11.247242     5A    -11.245460     6A    -11.244314
       7A    -11.239244     8A    -11.235706     9A    -11.235327
      10A    -11.235271    11A    -11.230986    12A    -11.230866
      13A    -11.230351    14A    -11.228414    15A    -11.227929
      16A    -11.226925    17A    -11.226745    18A    -11.226602
      19A    -11.225494    20A    -11.224155    21A    -11.223999
      22A    -11.223058    23A    -11.222355    24A    -11.222000
      25A    -11.221765    26A    -11.221106    27A    -11.220771
      28A    -11.220292    29A    -11.220129    30A    -11.219402
      31A    -11.219290    32A    -11.218945    33A    -11.217631
      34A    -11.215789    35A    -11.215385    36A     -1.417403
      37A     -1.193316    38A     -1.179118    39A     -1.165173
      40A     -1.131897    41A     -1.114716    42A     -1.101735
      43A     -1.074290    44A     -1.060894    45A     -1.033809
      46A     -1.017544    47A     -1.013574    48A     -1.001362
      49A     -0.996216    50A     -0.979263    51A     -0.972047
      52A     -0.966633    53A     -0.951408    54A     -0.914112
      55A     -0.884754    56A     -0.857127    57A     -0.841836
      58A     -0.828845    59A     -0.826991    60A     -0.801100
      61A     -0.796217    62A     -0.792248    63A     -0.776776
      64A     -0.769917    65A     -0.737443    66A     -0.709163
      67A     -0.696103    68A     -0.690270    69A     -0.685255
      70A     -0.671916    71A     -0.666502    72A     -0.665190
      73A     -0.656758    74A     -0.647805    75A     -0.632584
      76A     -0.627971    77A     -0.614117    78A     -0.608592
      79A     -0.603618    80A     -0.601912    81A     -0.593682
      82A     -0.591569    83A     -0.587078    84A     -0.580684
      85A     -0.574142    86A     -0.571832    87A     -0.567259
      88A     -0.560806    89A     -0.556514    90A     -0.552984
      91A     -0.539485    92A     -0.527545    93A     -0.525499
      94A     -0.521312    95A     -0.513830    96A     -0.509130
      97A     -0.505213    98A     -0.500249    99A     -0.494441
     100A     -0.489252   101A     -0.481997   102A     -0.478114
     103A     -0.474048   104A     -0.470625   105A     -0.465553
     106A     -0.460020   107A     -0.453438   108A     -0.440884
     109A     -0.436620   110A     -0.406521   111A     -0.373167
     112A     -0.362120   113A     -0.341374   114A     -0.322056
     115A     -0.308608   116A     -0.303114   117A     -0.277790
     118A     -0.273287   119A     -0.262161

  @DF-RHF Final Energy: -1377.57121624500019

   => Energetics <=

    Nuclear Repulsion Energy =           3587.1950548645609160
    One-Electron Energy =               -9010.2130944799810095
    Two-Electron Energy =                4045.4468233704201339
    DFT Exchange-Correlation Energy =       0.0000000000000000
    Empirical Dispersion Energy =           0.0000000000000000
    PCM Polarization Energy =               0.0000000000000000
    EFP Energy =                            0.0000000000000000
    Total Energy =                      -1377.5712162449999596
    Molecular point group: c1
  Basis Set: 6-31G**
    Blend: 6-31G**
  Basis Set: (6-31G** AUX)
    Blend: CC-PVDZ-JKFIT

  -Total Gradient:
     Atom            X                  Y                   Z
    ------   -----------------  -----------------  -----------------
       1       -0.000096352999     0.000030277095     0.000115986177
       2        0.000001078894     0.000009260397     0.000004715830
       3        0.000025726460     0.000068512742     0.000000180070
       4        0.000085493634    -0.000028292454     0.000033060296
       5        0.000036160220    -0.000014498722    -0.000027508653
       6        0.000006408420    -0.000007638605    -0.000002581537
       7       -0.000001695960     0.000002288040    -0.000000612035
       8        0.000005264607    -0.000010885603     0.000004805433
       9       -0.000015137032    -0.000007089424     0.000006513945
      10        0.000003494572    -0.000011842947    -0.000005082825
      11       -0.000004679522     0.000009840142     0.000000294831
      12        0.000001004502     0.000001494999    -0.000012767299
      13       -0.000029328737     0.000012524304     0.000033869722
      14        0.000013512992    -0.000016683719    -0.000008740281
      15        0.000001647143     0.000006052874    -0.000010218654
      16       -0.000001993109    -0.000000726237    -0.000001914138
      17        0.000018018178     0.000057848531    -0.000086180218
      18        0.000002136241    -0.000000944014    -0.000034212356
      19        0.000003505014     0.000001688740     0.000004253312
      20        0.000004075230    -0.000008518222    -0.000004921440
      21       -0.000003655817     0.000008517533     0.000012498330
      22       -0.000016484842     0.000026791476    -0.000011443205
      23        0.000009393626    -0.000039328196     0.000004190927
      24       -0.000022686895    -0.000008958676     0.000013099080
      25        0.000001095274     0.000002897168     0.000012610738
      26        0.000003608164    -0.000000046879     0.000007457749
      27       -0.000009593447    -0.000019945793     0.000026286793
      28        0.000005417054     0.000014860782    -0.000005559656
      29        0.000000799737     0.000002885307     0.000002328993
      30       -0.000004281847    -0.000001689573    -0.000005584404
      31       -0.000012542292     0.000015236889     0.000009043593
      32       -0.000003242709    -0.000000732796    -0.000006629156
      33       -0.000010428872     0.000008565691     0.000023908911
      34        0.000003019086     0.000004841859    -0.000005968822
      35        0.000029374157    -0.000021425535    -0.000018268456
      36       -0.000014155289     0.000015134168    -0.000003324727
      37       -0.000008259552    -0.000000160189     0.000015073185
      38       -0.000003320703    -0.000001338867    -0.000005453055
      39        0.000004453916    -0.000031252463    -0.000007337824
      40       -0.000002944672     0.000008483191     0.000003206917
      41       -0.000014423614     0.000008586769    -0.000014480643
      42       -0.000026979449     0.000027308831    -0.000015519610
      43       -0.000001600479    -0.000024617366    -0.000002793127
      44        0.000017616980     0.000005908375     0.000020679640
      45       -0.000005578888    -0.000004088940    -0.000007018959
      46        0.000017275854    -0.000000426180    -0.000027241852
      47        0.000002891263     0.000000444254     0.000011432971
      48       -0.000004851772    -0.000002779175    -0.000019349889
      49        0.000002031321    -0.000000470936     0.000003641380
      50        0.000003964916     0.000004197915     0.000002513947
      51       -0.000003912944    -0.000004494275     0.000000546450
      52       -0.000003145302    -0.000005707079    -0.000002621596
      53        0.000001454004     0.000000036738     0.000003988074
      54        0.000000327622     0.000001674686     0.000002656306
      55       -0.000000185970    -0.000003762693     0.000002692001
      56        0.000007217955     0.000054906555     0.000040161194
      57        0.000021870851    -0.000057445738    -0.000001070930
      58       -0.000018451957    -0.000041538259    -0.000011916007
      59        0.000009475857    -0.000040572509    -0.000058031974
      60       -0.000011026620     0.000005029100     0.000002614668
      61        0.000002127507     0.000001806937     0.000000041865

  **** Optimization is complete! (in 14 steps) ****
    Final optimized geometry and variables:
    Molecular point group: c1

    Geometry (in Angstrom), charge = 0, multiplicity = 1:

    O           -1.367902803504     2.383850568663     2.988838035548
    C           -1.073226157616     0.212522486032     1.363761789173
    C           -0.207358255594     1.012661239257    -1.642074921576
    C           -0.930642240591     2.689919333681     1.749739284335
    C            0.421602601148    -0.158933006819    -1.816450548278
    C           -2.068973639135    -0.452165047537     0.710331117364
    H           -2.555025374621     0.016433717354    -0.125291339625
    C            0.330795412189    -1.051177716956    -3.016985931141
    C            2.036913572150    -0.395782682870     0.227098810982
    H            1.773165112999     0.538317519667     0.677966240944
    C           -0.423802743185     4.257534216824     0.001373596449
    H           -0.347005552318     5.276593089652    -0.336238284861
    C           -0.719576503383     1.593698314653     0.887598078928
    C           -0.447340573612    -0.414531908166     2.493833949757
    C            2.840977877882    -2.791819281196    -0.964669980552
    H            3.171051128387    -3.699449185012    -1.438578495484
    C           -0.741470757212     3.994441147124     1.327004686062
    H           -0.899464358157     4.813388658380     2.000778144640
    C            1.851021644986    -2.012935149450    -1.535160999028
    C           -0.711641035872     1.887314352387    -2.792200947362
    H           -0.275096707249     1.574894281381    -3.729253232549
    C           -0.350396554798     1.885419647680    -0.429347864600
    C           -0.268532136245     3.212767389315    -0.872087750309
    C            1.411844203845    -0.831858150227    -0.928242836884
    C            3.422181231884    -2.370588819251     0.220174390063
    H            4.193455282501    -2.962720914165     0.680560708752
    C            0.597012301805     0.193831213782     3.245223267338
    H            0.942755965043     1.169807724099     2.965347627459
    C           -2.489856304658    -1.741679970569     1.103016395538
    H           -3.276888163452    -2.228538444623     0.555018009025
    C           -0.391773205156    -2.031597974766    -5.086620844124
    H           -1.003382005348    -1.983855216693    -5.970452589474
    C            1.154506805673    -2.166665210272    -2.817384173910
    C           -0.872618224221    -1.701490705197     2.883901790029
    C           -2.239500331029     1.937094437074    -2.924990741705
    H           -2.524894684763     2.568580108499    -3.761747713841
    H           -2.698274867305     2.343489922954    -2.029853854425
    H           -2.658088680813     0.950471763657    -3.091594540679
    C           -0.137363238888     3.261731365820    -2.373105071853
    H            0.902124524000     3.338730455351    -2.683415915065
    H           -0.678114230022     4.093961941516    -2.812327780952
    C           -0.464199526857    -1.005950363790    -4.154670594368
    H           -1.147657425626    -0.202229474096    -4.335546219288
    C            0.447438401485    -3.116496883392    -4.888298289357
    H            0.488080454933    -3.904995270694    -5.618984900354
    C            3.030583576662    -1.174214949650     0.801353966761
    H            3.499344630858    -0.843426877878     1.710552726307
    C            1.221833314871    -3.192420884480    -3.742327016572
    H            1.859458340531    -4.042300119849    -3.574312034476
    C           -0.260187533621    -2.335274803535     3.999709109556
    H           -0.598739206366    -3.317203664858     4.282102558888
    C            0.728916733110    -1.723286697848     4.695687362381
    H            1.185879505302    -2.210637832020     5.538862306978
    C           -1.906529545316    -2.351663362444     2.162756887906
    H           -2.219167228600    -3.333864284666     2.472186102825
    C           -1.626423308280     3.389652858724     3.924077710589
    H           -2.409933500850     4.059448518487     3.583143095010
    H           -0.734377680906     3.966857559701     4.148687155299
    H           -1.955696875446     2.885420524302     4.820423074564
    C            1.164216485992    -0.434346715241     4.306127499244
    H            1.951856677383     0.049076612735     4.857449445738

*** Psi4 exiting successfully. Buy a developer a beer!
