                               Psi4 1.1 release

  ==> Input File <==

--------------------------------------------------------------------------
# Any line starting with the # character is a comment line
#! Sample HF/cc-pVDZ Feringa computation

memory 2000 mb

molecule {
  O          -0.0905    5.5166   12.3212
  C           0.2148    3.5148   10.5539
  C           1.2528    4.5034    7.6327
  C           0.4429    5.9274   11.1286
  C           1.7540    3.2686    7.3766
  C          -0.8252    2.9396    9.8619
  H          -1.2025    3.3992    9.1219
  C           1.7183    2.5437    6.0696
  C           3.0507    2.6072    9.5438
  H           2.9013    3.4342    9.9869
  C           1.0732    7.6244    9.5385
  H           1.2275    8.5364    9.3209
  C           0.6509    4.8945   10.1848
  C           0.7880    2.8150   11.6680
  C           3.5773    0.1811    8.2153
  H           3.7557   -0.6352    7.7635
  C           0.7031    7.2626   10.8309
  H           0.6286    7.9245   11.5072
  C           2.8346    1.1819    7.6040
  C           0.8725    5.4878    6.5329
  H           1.3338    5.2571    5.6753
  C           1.0804    5.2753    8.8983
  C           1.2127    6.6449    8.5780
  C           2.5109    2.3759    8.2838
  C           4.0543    0.3990    9.5019
  H           4.5471   -0.2825    9.9444
  C           1.8496    3.3486   12.4438
  H           2.1861    4.2127   12.2395
  C          -1.3425    1.6789   10.2326
  H          -2.0752    1.3104    9.7534
  C           1.2485    1.9192    3.7870
  H           0.8622    2.1258    2.9451
  C           2.3548    1.2902    6.2299
  C           0.2861    1.5272   12.0084
  C          -0.6476    5.5052    6.3445
  H          -0.8920    6.2245    5.7258
  H          -1.0820    5.6575    7.2089
  H          -0.9413    4.6452    5.9778
  C           1.4014    6.8266    7.0972
  H           2.3554    6.9610    6.8693
  H           0.8740    7.5933    6.7579
  C           1.1295    2.8321    4.8348
  H           0.6522    3.6437    4.7095
  C           1.9218    0.7111    3.9510
  H           2.0076    0.1130    3.2184
  C           3.8137    1.6101   10.1487
  H           4.1751    1.7585   11.0137
  C           2.4674    0.3804    5.1847
  H           2.9087   -0.4511    5.3118
  C           0.8829    0.8211   13.0952
  H           0.5519   -0.0380   13.3300
  C           1.9174    1.3550   13.8002
  H           2.3150    0.8603   14.5081
  C          -0.7959    0.9854   11.2759
  H          -1.1452    0.1335   11.5099
  C          -0.4216    6.5116   13.2838
  H          -1.0388    7.1598   12.8843
  H           0.3939    6.9717   13.5715
  H          -0.8480    6.0881   14.0570
  C           2.3993    2.6430   13.4812
  H           3.1079    3.0221   13.9880
}

set basis cc-pVDZ
energy('scf')
--------------------------------------------------------------------------

    Molecular point group: c1

    Geometry (in Angstrom), charge = 0, multiplicity = 1:

       Center              X                  Y                   Z               Mass
    ------------   -----------------  -----------------  -----------------  -----------------
           O         -1.359938439009     2.190676951276     3.106873470861    15.994914619560
           C         -1.054638439009     0.188876951276     1.339573470861    12.000000000000
           C         -0.016638439009     1.177476951276    -1.581626529139    12.000000000000
           C         -0.826538439009     2.601476951276     1.914273470861    12.000000000000
           C          0.484561560991    -0.057323048724    -1.837726529139    12.000000000000
           C         -2.094638439009    -0.386323048724     0.647573470861    12.000000000000
           H         -2.471938439009     0.073276951276    -0.092426529139     1.007825032070
           C          0.448861560991    -0.782223048724    -3.144726529139    12.000000000000
           C          1.781261560991    -0.718723048724     0.329473470861    12.000000000000
           H          1.631861560991     0.108276951276     0.772573470861     1.007825032070
           C         -0.196238439009     4.298476951276     0.324173470861    12.000000000000
           H         -0.041938439009     5.210476951276     0.106573470861     1.007825032070
           C         -0.618538439009     1.568576951276     0.970473470861    12.000000000000
           C         -0.481438439009    -0.510923048724     2.453673470861    12.000000000000
           C          2.307861560991    -3.144823048724    -0.999026529139    12.000000000000
           H          2.486261560991    -3.961123048724    -1.450826529139     1.007825032070
           C         -0.566338439009     3.936676951276     1.616573470861    12.000000000000
           H         -0.640838439009     4.598576951276     2.292873470861     1.007825032070
           C          1.565161560991    -2.144023048724    -1.610326529139    12.000000000000
           C         -0.396938439009     2.161876951276    -2.681426529139    12.000000000000
           H          0.064361560991     1.931176951276    -3.539026529139     1.007825032070
           C         -0.189038439009     1.949376951276    -0.316026529139    12.000000000000
           C         -0.056738439009     3.318976951276    -0.636326529139    12.000000000000
           C          1.241461560991    -0.950023048724    -0.930526529139    12.000000000000
           C          2.784861560991    -2.926923048724     0.287573470861    12.000000000000
           H          3.277661560991    -3.608423048724     0.730073470861     1.007825032070
           C          0.580161560991     0.022676951276     3.229473470861    12.000000000000
           H          0.916661560991     0.886776951276     3.025173470861     1.007825032070
           C         -2.611938439009    -1.647023048724     1.018273470861    12.000000000000
           H         -3.344638439009    -2.015523048724     0.539073470861     1.007825032070
           C         -0.020938439009    -1.406723048724    -5.427326529139    12.000000000000
           H         -0.407238439009    -1.200123048724    -6.269226529139     1.007825032070
           C          1.085361560991    -2.035723048724    -2.984426529139    12.000000000000
           C         -0.983338439009    -1.798723048724     2.794073470861    12.000000000000
           C         -1.917038439009     2.179276951276    -2.869826529139    12.000000000000
           H         -2.161438439009     2.898576951276    -3.488526529139     1.007825032070
           H         -2.351438439009     2.331576951276    -2.005426529139     1.007825032070
           H         -2.210738439009     1.319276951276    -3.236526529139     1.007825032070
           C          0.131961560991     3.500676951276    -2.117126529139    12.000000000000
           H          1.085961560991     3.635076951276    -2.345026529139     1.007825032070
           H         -0.395438439009     4.267376951276    -2.456426529139     1.007825032070
           C         -0.139938439009    -0.493823048724    -4.379526529139    12.000000000000
           H         -0.617238439009     0.317776951276    -4.504826529139     1.007825032070
           C          0.652361560991    -2.614823048724    -5.263326529139    12.000000000000
           H          0.738161560991    -3.212923048724    -5.995926529139     1.007825032070
           C          2.544261560991    -1.715823048724     0.934373470861    12.000000000000
           H          2.905661560991    -1.567423048724     1.799373470861     1.007825032070
           C          1.197961560991    -2.945523048724    -4.029626529139    12.000000000000
           H          1.639261560991    -3.777023048724    -3.902526529139     1.007825032070
           C         -0.386538439009    -2.504823048724     3.880873470861    12.000000000000
           H         -0.717538439009    -3.363923048724     4.115673470861     1.007825032070
           C          0.647961560991    -1.970923048724     4.585873470861    12.000000000000
           H          1.045561560991    -2.465623048724     5.293773470861     1.007825032070
           C         -2.065338439009    -2.340523048724     2.061573470861    12.000000000000
           H         -2.414638439009    -3.192423048724     2.295573470861     1.007825032070
           C         -1.691038439009     3.185676951276     4.069473470861    12.000000000000
           H         -2.308238439009     3.833876951276     3.669973470861     1.007825032070
           H         -0.875538439009     3.645776951276     4.357173470861     1.007825032070
           H         -2.117438439009     2.762176951276     4.842673470861     1.007825032070
           C          1.129861560991    -0.682923048724     4.266873470861    12.000000000000
           H          1.838461560991    -0.303823048724     4.773673470861     1.007825032070

  Charge       = 0
  Multiplicity = 1
  Basis Set: CC-PVDZ
    Blend: CC-PVDZ
  Basis Set: (CC-PVDZ AUX)
    Blend: CC-PVDZ-JKFIT

    Orbital Energies (a.u.)
    -----------------------

    Doubly Occupied:

       1A    -20.575316     2A    -11.300465     3A    -11.254449
       4A    -11.249999     5A    -11.249010     6A    -11.247206
       7A    -11.240652     8A    -11.236710     9A    -11.233582
      10A    -11.231248    11A    -11.230310    12A    -11.229162
      13A    -11.228026    14A    -11.226238    15A    -11.223716
      16A    -11.223408    17A    -11.223354    18A    -11.221789
      19A    -11.218862    20A    -11.215206    21A    -11.213920
      22A    -11.213024    23A    -11.212174    24A    -11.211778
      25A    -11.211339    26A    -11.211280    27A    -11.210141
      28A    -11.209809    29A    -11.209564    30A    -11.208602
      31A    -11.208050    32A    -11.207369    33A    -11.206692
      34A    -11.202923    35A    -11.184332    36A     -1.403797
      37A     -1.193871    38A     -1.178871    39A     -1.167289
      40A     -1.132832    41A     -1.120614    42A     -1.108286
      43A     -1.080650    44A     -1.070494    45A     -1.042969
      46A     -1.029773    47A     -1.028467    48A     -1.014764
      49A     -1.008474    50A     -0.995168    51A     -0.990732
      52A     -0.974743    53A     -0.968694    54A     -0.940858
      55A     -0.902085    56A     -0.877487    57A     -0.863768
      58A     -0.851207    59A     -0.845785    60A     -0.822207
      61A     -0.818035    62A     -0.813052    63A     -0.798238
      64A     -0.787670    65A     -0.757018    66A     -0.737611
      67A     -0.728692    68A     -0.715462    69A     -0.701715
      70A     -0.696690    71A     -0.694359    72A     -0.686185
      73A     -0.671978    74A     -0.663958    75A     -0.654807
      76A     -0.641473    77A     -0.640780    78A     -0.635813
      79A     -0.629858    80A     -0.617191    81A     -0.614632
      82A     -0.609744    83A     -0.604437    84A     -0.597958
      85A     -0.589763    86A     -0.585609    87A     -0.580863
      88A     -0.578533    89A     -0.575633    90A     -0.572747
      91A     -0.545110    92A     -0.541208    93A     -0.535259
      94A     -0.531795    95A     -0.522861    96A     -0.521803
      97A     -0.513677    98A     -0.509403    99A     -0.504285
     100A     -0.499645   101A     -0.495805   102A     -0.485225
     103A     -0.481882   104A     -0.474544   105A     -0.470777
     106A     -0.465887   107A     -0.459887   108A     -0.446197
     109A     -0.435406   110A     -0.407272   111A     -0.373149
     112A     -0.361553   113A     -0.342299   114A     -0.320356
     115A     -0.308697   116A     -0.302303   117A     -0.274079
     118A     -0.269202   119A     -0.260926

  @DF-RHF Final Energy: -1377.26555987364736

   => Energetics <=

    Nuclear Repulsion Energy =           3612.9033715848163411
    One-Electron Energy =               -9059.4284923202467326
    Two-Electron Energy =                4069.2595608617830294
    DFT Exchange-Correlation Energy =       0.0000000000000000
    Empirical Dispersion Energy =           0.0000000000000000
    PCM Polarization Energy =               0.0000000000000000
    EFP Energy =                            0.0000000000000000
    Total Energy =                      -1377.2655598736473621
*** Psi4 exiting successfully. Buy a developer a beer!
